version 2
run General-0-20161011-14:23:58-23130
attr configname General
attr datetime 20161011-14:23:58
attr experiment General
attr inifile omnetpp.ini
attr iterationvars ""
attr iterationvars2 $repetition=0
attr measurement ""
attr network veinstutorial.src.TutorialScenario
attr processid 23130
attr repetition 0
attr replication #0
attr resultdir results
attr runnumber 0
attr seedset 0

vector 2  TutorialScenario.node[0].veinsmobility  posx  ETV
vector 3  TutorialScenario.node[0].veinsmobility  posy  ETV
vector 4  TutorialScenario.node[0].veinsmobility  speed  ETV
vector 5  TutorialScenario.node[0].veinsmobility  acceleration  ETV
vector 6  TutorialScenario.node[0].veinsmobility  co2emission  ETV
vector 9  TutorialScenario.node[1].veinsmobility  posx  ETV
vector 10  TutorialScenario.node[1].veinsmobility  posy  ETV
vector 11  TutorialScenario.node[1].veinsmobility  speed  ETV
vector 12  TutorialScenario.node[1].veinsmobility  acceleration  ETV
vector 13  TutorialScenario.node[1].veinsmobility  co2emission  ETV
6	7	0.3	1.167848739031
6	10	0.4	1.1967744942298
6	13	0.5	1.2257019122483
6	16	0.6	1.25463154736
6	19	0.7	1.2835639538381
6	22	0.8	1.3124996859558
6	25	0.9	1.3414392979866
6	28	1	1.3703833442035
6	31	1.1	1.39933237888
6	34	1.2	1.4282869562893
6	37	1.3	1.4572476307046
6	40	1.4	1.4862149563994
6	43	1.5	1.5151894876467
6	46	1.6	1.54417177872
6	49	1.7	1.5731623838925
6	52	1.8	1.6021618574374
6	55	1.9	1.6311707536282
6	58	2	1.6601896267379
6	61	2.1	1.68921903104
6	64	2.2	1.7182595208077
6	67	2.3	1.7473116503142
6	70	2.4	1.776375973833
6	73	2.5	1.8054530456371
6	76	2.6	1.83454342
6	79	2.7	1.8636476511949
6	82	2.8	1.892766293495
6	85	2.9	1.9218999011738
6	88	3	1.9510490285043
6	91	3.1	1.98021422976
6	94	3.2	2.0093960592141
6	97	3.3	2.0385950711398
6	100	3.4	2.0678118198106
6	103	3.5	2.0970468594995
6	106	3.6	2.12630074448
6	109	3.7	2.1555740290253
6	112	3.8	2.1848672674086
6	115	3.9	2.2141810139034
6	118	4	2.2435158227827
6	121	4.1	2.27287224832
6	124	4.2	2.3022508447885
6	127	4.3	2.3316521664614
6	130	4.4	2.3610767676122
6	133	4.5	2.3905252025139
6	136	4.6	2.41999802544
6	139	4.7	2.4494957906637
6	142	4.8	2.4790190524582
6	145	4.9	2.508568365097
6	148	5	2.5381442828531
6	151	5.1	2.56774736
6	155	5.2	2.5973781508109
6	160	5.3	2.627037209559
6	165	5.4	2.6567250905178
6	170	5.5	2.6864423479603
6	175	5.6	2.71618953616
6	180	5.7	2.7459672093901
6	185	5.8	2.7757759219238
6	190	5.9	2.8056162280346
6	195	6	2.8354886819955
6	200	6.1	2.86539383808
6	205	6.2	2.8953322505613
6	210	6.3	2.9253044737126
6	215	6.4	2.9553110618074
6	220	6.5	2.9853525691187
6	225	6.6	3.01542954992
6	230	6.7	3.0455425584845
6	235	6.8	3.0756921490854
6	240	6.9	3.1058788759962
6	245	7	3.1361032934899
5	7	0.3	1
5	10	0.4	1
5	13	0.5	1
5	16	0.6	1
5	19	0.7	1
5	22	0.8	1
5	25	0.9	1
5	28	1	1
5	31	1.1	1
5	34	1.2	1
5	37	1.3	1
5	40	1.4	1
5	43	1.5	1
5	46	1.6	1
5	49	1.7	1
5	52	1.8	1
5	55	1.9	1
5	58	2	1
5	61	2.1	1
5	64	2.2	1
5	67	2.3	1
5	70	2.4	1
5	73	2.5	1
5	76	2.6	1
5	79	2.7	1
5	82	2.8	1
5	85	2.9	1
5	88	3	1
5	91	3.1	1
5	94	3.2	1
5	97	3.3	1
5	100	3.4	1
5	103	3.5	1
5	106	3.6	1
5	109	3.7	1
5	112	3.8	1
5	115	3.9	1
5	118	4	1
5	121	4.1	1
5	124	4.2	1
5	127	4.3	1
5	130	4.4	1
5	133	4.5	1
5	136	4.6	1
5	139	4.7	1
5	142	4.8	1
5	145	4.9	1
5	148	5	1
5	151	5.1	1
5	155	5.2	1
5	160	5.3	1
5	165	5.4	1
5	170	5.5	1
5	175	5.6	1
5	180	5.7	1
5	185	5.8	1
5	190	5.9	1
5	195	6	1
5	200	6.1	1
5	205	6.2	1
5	210	6.3	1
5	215	6.4	1
5	220	6.5	1
5	225	6.6	1
5	230	6.7	1
5	235	6.8	1
5	240	6.9	1
5	245	7	1
4	4	0.2	0.1
4	7	0.3	0.2
4	10	0.4	0.3
4	13	0.5	0.4
4	16	0.6	0.5
4	19	0.7	0.6
4	22	0.8	0.7
4	25	0.9	0.8
4	28	1	0.9
4	31	1.1	1
4	34	1.2	1.1
4	37	1.3	1.2
4	40	1.4	1.3
4	43	1.5	1.4
4	46	1.6	1.5
4	49	1.7	1.6
4	52	1.8	1.7
4	55	1.9	1.8
4	58	2	1.9
4	61	2.1	2
4	64	2.2	2.1
4	67	2.3	2.2
4	70	2.4	2.3
4	73	2.5	2.4
4	76	2.6	2.5
4	79	2.7	2.6
4	82	2.8	2.7
4	85	2.9	2.8
4	88	3	2.9
4	91	3.1	3
4	94	3.2	3.1
4	97	3.3	3.2
4	100	3.4	3.3
4	103	3.5	3.4
4	106	3.6	3.5
4	109	3.7	3.6
4	112	3.8	3.7
4	115	3.9	3.8
4	118	4	3.9
4	121	4.1	4
4	124	4.2	4.1
4	127	4.3	4.2
4	130	4.4	4.3
4	133	4.5	4.4
4	136	4.6	4.5
4	139	4.7	4.6
4	142	4.8	4.7
4	145	4.9	4.8
4	148	5	4.9
4	151	5.1	5
4	155	5.2	5.1
4	160	5.3	5.2
4	165	5.4	5.3
4	170	5.5	5.4
4	175	5.6	5.5
4	180	5.7	5.6
4	185	5.8	5.7
4	190	5.9	5.8
4	195	6	5.9
4	200	6.1	6
4	205	6.2	6.1
4	210	6.3	6.2
4	215	6.4	6.3
4	220	6.5	6.4
4	225	6.6	6.5
4	230	6.7	6.6
4	235	6.8	6.7
4	240	6.9	6.8
4	245	7	6.9
3	2	0.1	26.65
3	4	0.2	26.65
3	7	0.3	26.65
3	10	0.4	26.65
3	13	0.5	26.65
3	16	0.6	26.65
3	19	0.7	26.65
3	22	0.8	26.65
3	25	0.9	26.65
3	28	1	26.65
3	31	1.1	26.65
3	34	1.2	26.65
3	37	1.3	26.65
3	40	1.4	26.65
3	43	1.5	26.65
3	46	1.6	26.65
3	49	1.7	26.65
3	52	1.8	26.65
3	55	1.9	26.65
3	58	2	26.65
3	61	2.1	26.65
3	64	2.2	26.65
3	67	2.3	26.65
3	70	2.4	26.65
3	73	2.5	26.65
3	76	2.6	26.65
3	79	2.7	26.65
3	82	2.8	26.65
3	85	2.9	26.65
3	88	3	26.65
3	91	3.1	26.65
3	94	3.2	26.65
3	97	3.3	26.65
3	100	3.4	26.65
3	103	3.5	26.65
3	106	3.6	26.65
3	109	3.7	26.65
3	112	3.8	26.65
3	115	3.9	26.65
3	118	4	26.65
3	121	4.1	26.65
3	124	4.2	26.65
3	127	4.3	26.65
3	130	4.4	26.65
3	133	4.5	26.65
3	136	4.6	26.65
3	139	4.7	26.65
3	142	4.8	26.65
3	145	4.9	26.65
3	148	5	26.65
3	151	5.1	26.65
3	155	5.2	26.65
3	160	5.3	26.65
3	165	5.4	26.65
3	170	5.5	26.65
3	175	5.6	26.65
3	180	5.7	26.65
3	185	5.8	26.65
3	190	5.9	26.65
3	195	6	26.65
3	200	6.1	26.65
3	205	6.2	26.65
3	210	6.3	26.65
3	215	6.4	26.65
3	220	6.5	26.65
3	225	6.6	26.65
3	230	6.7	26.65
3	235	6.8	26.65
3	240	6.9	26.65
3	245	7	26.65
2	2	0.1	27.1
2	4	0.2	27.1
2	7	0.3	27.11
2	10	0.4	27.13
2	13	0.5	27.16
2	16	0.6	27.2
2	19	0.7	27.25
2	22	0.8	27.31
2	25	0.9	27.38
2	28	1	27.46
2	31	1.1	27.55
2	34	1.2	27.65
2	37	1.3	27.76
2	40	1.4	27.88
2	43	1.5	28.01
2	46	1.6	28.15
2	49	1.7	28.3
2	52	1.8	28.46
2	55	1.9	28.63
2	58	2	28.81
2	61	2.1	29
2	64	2.2	29.2
2	67	2.3	29.41
2	70	2.4	29.63
2	73	2.5	29.86
2	76	2.6	30.1
2	79	2.7	30.35
2	82	2.8	30.61
2	85	2.9	30.88
2	88	3	31.16
2	91	3.1	31.45
2	94	3.2	31.75
2	97	3.3	32.06
2	100	3.4	32.38
2	103	3.5	32.71
2	106	3.6	33.05
2	109	3.7	33.4
2	112	3.8	33.76
2	115	3.9	34.13
2	118	4	34.51
2	121	4.1	34.9
2	124	4.2	35.3
2	127	4.3	35.71
2	130	4.4	36.13
2	133	4.5	36.56
2	136	4.6	37
2	139	4.7	37.45
2	142	4.8	37.91
2	145	4.9	38.38
2	148	5	38.86
2	151	5.1	39.35
2	155	5.2	39.85
2	160	5.3	40.36
2	165	5.4	40.88
2	170	5.5	41.41
2	175	5.6	41.95
2	180	5.7	42.5
2	185	5.8	43.06
2	190	5.9	43.63
2	195	6	44.21
2	200	6.1	44.8
2	205	6.2	45.4
2	210	6.3	46.01
2	215	6.4	46.63
2	220	6.5	47.26
2	225	6.6	47.9
2	230	6.7	48.55
2	235	6.8	49.21
2	240	6.9	49.88
2	245	7	50.56
13	160	5.3	1.167848739031
13	165	5.4	1.1967744942298
13	170	5.5	1.2257019122483
13	175	5.6	1.25463154736
13	180	5.7	1.2835639538381
13	185	5.8	1.3124996859558
13	190	5.9	1.3414392979866
13	195	6	1.3703833442035
13	200	6.1	1.39933237888
13	205	6.2	1.4282869562893
13	210	6.3	1.4572476307046
13	215	6.4	1.4862149563994
13	220	6.5	1.5151894876467
13	225	6.6	1.54417177872
13	230	6.7	1.5731623838925
13	235	6.8	1.6021618574374
13	240	6.9	1.6311707536282
13	245	7	1.6601896267379
12	160	5.3	1
12	165	5.4	1
12	170	5.5	1
12	175	5.6	1
12	180	5.7	1
12	185	5.8	1
12	190	5.9	1
12	195	6	1
12	200	6.1	1
12	205	6.2	1
12	210	6.3	1
12	215	6.4	1
12	220	6.5	1
12	225	6.6	1
12	230	6.7	1
12	235	6.8	1
12	240	6.9	1
12	245	7	1
11	155	5.2	0.1
11	160	5.3	0.2
11	165	5.4	0.3
11	170	5.5	0.4
11	175	5.6	0.5
11	180	5.7	0.6
11	185	5.8	0.7
11	190	5.9	0.8
11	195	6	0.9
11	200	6.1	1
11	205	6.2	1.1
11	210	6.3	1.2
11	215	6.4	1.3
11	220	6.5	1.4
11	225	6.6	1.5
11	230	6.7	1.6
11	235	6.8	1.7
11	240	6.9	1.8
11	245	7	1.9
10	151	5.1	26.65
10	155	5.2	26.65
10	160	5.3	26.65
10	165	5.4	26.65
10	170	5.5	26.65
10	175	5.6	26.65
10	180	5.7	26.65
10	185	5.8	26.65
10	190	5.9	26.65
10	195	6	26.65
10	200	6.1	26.65
10	205	6.2	26.65
10	210	6.3	26.65
10	215	6.4	26.65
10	220	6.5	26.65
10	225	6.6	26.65
10	230	6.7	26.65
10	235	6.8	26.65
10	240	6.9	26.65
10	245	7	26.65
9	151	5.1	27.1
9	155	5.2	27.1
9	160	5.3	27.11
9	165	5.4	27.13
9	170	5.5	27.16
9	175	5.6	27.2
9	180	5.7	27.25
9	185	5.8	27.31
9	190	5.9	27.38
9	195	6	27.46
9	200	6.1	27.55
9	205	6.2	27.65
9	210	6.3	27.76
9	215	6.4	27.88
9	220	6.5	28.01
9	225	6.6	28.15
9	230	6.7	28.3
9	235	6.8	28.46
9	240	6.9	28.63
9	245	7	28.81
