version 2
run General-0-20161011-14:14:57-9670
attr configname General
attr datetime 20161011-14:14:57
attr experiment General
attr inifile omnetpp.ini
attr iterationvars ""
attr iterationvars2 $repetition=0
attr measurement ""
attr network TutorialScenario
attr processid 9670
attr repetition 0
attr replication #0
attr resultdir results
attr runnumber 0
attr seedset 0

vector 2  TutorialScenario.node[0].veinsmobility  posx  ETV
vector 3  TutorialScenario.node[0].veinsmobility  posy  ETV
vector 4  TutorialScenario.node[0].veinsmobility  speed  ETV
vector 5  TutorialScenario.node[0].veinsmobility  acceleration  ETV
vector 6  TutorialScenario.node[0].veinsmobility  co2emission  ETV
vector 9  TutorialScenario.node[1].veinsmobility  posx  ETV
vector 10  TutorialScenario.node[1].veinsmobility  posy  ETV
vector 11  TutorialScenario.node[1].veinsmobility  speed  ETV
vector 12  TutorialScenario.node[1].veinsmobility  acceleration  ETV
vector 13  TutorialScenario.node[1].veinsmobility  co2emission  ETV
vector 16  TutorialScenario.node[2].veinsmobility  posx  ETV
vector 17  TutorialScenario.node[2].veinsmobility  posy  ETV
vector 18  TutorialScenario.node[2].veinsmobility  speed  ETV
vector 19  TutorialScenario.node[2].veinsmobility  acceleration  ETV
vector 20  TutorialScenario.node[2].veinsmobility  co2emission  ETV
vector 23  TutorialScenario.node[3].veinsmobility  posx  ETV
vector 24  TutorialScenario.node[3].veinsmobility  posy  ETV
vector 25  TutorialScenario.node[3].veinsmobility  speed  ETV
vector 26  TutorialScenario.node[3].veinsmobility  acceleration  ETV
vector 27  TutorialScenario.node[3].veinsmobility  co2emission  ETV
6	7	0.3	1.167848739031
6	10	0.4	1.1967744942298
6	13	0.5	1.2257019122483
6	16	0.6	1.25463154736
6	19	0.7	1.2835639538381
6	22	0.8	1.3124996859558
6	25	0.9	1.3414392979866
6	28	1	1.3703833442035
6	31	1.1	1.39933237888
6	34	1.2	1.4282869562893
6	37	1.3	1.4572476307046
6	40	1.4	1.4862149563994
6	43	1.5	1.5151894876467
6	46	1.6	1.54417177872
6	49	1.7	1.5731623838925
6	52	1.8	1.6021618574374
6	55	1.9	1.6311707536282
6	58	2	1.6601896267379
6	61	2.1	1.68921903104
6	64	2.2	1.7182595208077
6	67	2.3	1.7473116503142
6	70	2.4	1.776375973833
6	73	2.5	1.8054530456371
6	76	2.6	1.83454342
6	79	2.7	1.8636476511949
6	82	2.8	1.892766293495
6	85	2.9	1.9218999011738
6	88	3	1.9510490285043
6	91	3.1	1.98021422976
6	94	3.2	2.0093960592141
6	97	3.3	2.0385950711398
6	100	3.4	2.0678118198106
6	103	3.5	2.0970468594995
6	106	3.6	2.12630074448
6	109	3.7	2.1555740290253
6	112	3.8	2.1848672674086
6	115	3.9	2.2141810139034
6	118	4	2.2435158227827
6	121	4.1	2.27287224832
6	124	4.2	2.3022508447885
6	127	4.3	2.3316521664614
6	130	4.4	2.3610767676122
6	133	4.5	2.3905252025139
6	136	4.6	2.41999802544
6	139	4.7	2.4494957906637
6	142	4.8	2.4790190524582
6	145	4.9	2.508568365097
6	148	5	2.5381442828531
6	151	5.1	2.56774736
6	155	5.2	2.5973781508109
6	160	5.3	2.627037209559
6	165	5.4	2.6567250905178
6	170	5.5	2.6864423479603
6	175	5.6	2.71618953616
6	180	5.7	2.7459672093901
6	185	5.8	2.7757759219238
6	190	5.9	2.8056162280346
6	195	6	2.8354886819955
6	200	6.1	2.86539383808
6	205	6.2	2.8953322505613
6	210	6.3	2.9253044737126
6	215	6.4	2.9553110618074
6	220	6.5	2.9853525691187
6	225	6.6	3.01542954992
6	230	6.7	3.0455425584845
6	235	6.8	3.0756921490854
6	240	6.9	3.1058788759962
6	245	7	3.1361032934899
6	250	7.1	3.16636595584
6	255	7.2	3.1966674173197
6	260	7.3	3.2270082322022
6	265	7.4	3.257388954761
6	270	7.5	3.2878101392691
6	275	7.6	3.31827234
6	280	7.7	3.3487761112269
6	285	7.8	3.379322007223
6	290	7.9	3.4099105822617
6	295	8	3.4405423906163
6	300	8.1	3.47121798656
6	305	8.2	3.5019379243661
6	310	8.3	3.5327027583078
6	315	8.4	3.5635130426585
6	320	8.5	3.5943693316915
6	325	8.6	3.62527217968
6	330	8.7	3.6562221408973
6	335	8.8	3.6872197696166
6	340	8.9	3.7182656201113
6	345	9	3.7493602466547
6	350	9.1	3.78050420352
6	355	9.2	3.8116980449805
6	360	9.3	3.8429423253094
6	365	9.4	3.8742375987801
6	370	9.5	3.9055844196659
6	375	9.6	3.93698334224
6	380	9.7	3.9684349207757
6	385	9.8	3.9999397095462
6	390	9.9	4.0314982628249
6	395	10	4.0631111348851
6	400	10.1	4.09477888
6	406	10.2	4.1265020524429
6	413	10.3	4.158281206487
6	420	10.4	4.1901168964057
6	427	10.5	4.2220096764723
6	434	10.6	4.25396010096
6	441	10.7	4.2859687241421
6	448	10.8	4.3180361002918
6	455	10.9	4.3501627836825
6	462	11	4.3823493285875
6	469	11.1	4.41459628928
6	476	11.2	4.4469042200333
6	483	11.3	4.4792736751206
6	490	11.4	4.5117052088153
6	497	11.5	4.5441993753907
6	504	11.6	4.57675672912
6	511	11.7	4.6093778242765
6	518	11.8	4.6420632151334
6	525	11.9	4.6748134559641
6	532	12	4.7076291010419
6	539	12.1	4.74051070464
6	546	12.2	4.7734588210317
6	553	12.3	4.8064740044902
6	560	12.4	4.8395568092889
6	567	12.5	4.8727077897011
6	574	12.6	4.9059275
6	581	12.7	4.9392164944589
6	588	12.8	4.972575327351
6	595	12.9	5.0060045529497
6	602	13	5.0395047255283
6	609	13.1	5.07307639936
6	616	13.2	5.1067201287181
6	623	13.3	5.1404364678758
6	630	13.4	5.1742259711065
6	637	13.5	5.2080891926835
6	644	13.6	5.24202668688
6	651	13.7	5.2760390079693
6	658	13.8	5.3101267102246
6	665	13.9	5.3442903479193
6	672	14	5.3785304753267
6	679	14.1	2.0286304753279
6	686	14.2	2.0286304753267
6	693	14.3	2.0286304753267
6	700	14.4	2.0286304753267
6	707	14.5	2.0286304753267
6	714	14.6	2.0286304753267
6	721	14.7	2.0286304753267
6	728	14.8	2.0286304753267
6	735	14.9	2.0286304753267
6	742	15	2.0286304753267
6	749	15.1	2.0286304753267
6	757	15.2	2.0286304753267
6	766	15.3	2.0286304753267
6	775	15.4	2.0286304753267
6	784	15.5	2.0286304753267
6	793	15.6	2.0286304753267
6	802	15.7	2.0286304753267
6	811	15.8	2.0286304753267
5	7	0.3	1
5	10	0.4	1
5	13	0.5	1
5	16	0.6	1
5	19	0.7	1
5	22	0.8	1
5	25	0.9	1
5	28	1	1
5	31	1.1	1
5	34	1.2	1
5	37	1.3	1
5	40	1.4	1
5	43	1.5	1
5	46	1.6	1
5	49	1.7	1
5	52	1.8	1
5	55	1.9	1
5	58	2	1
5	61	2.1	1
5	64	2.2	1
5	67	2.3	1
5	70	2.4	1
5	73	2.5	1
5	76	2.6	1
5	79	2.7	1
5	82	2.8	1
5	85	2.9	1
5	88	3	1
5	91	3.1	1
5	94	3.2	1
5	97	3.3	1
5	100	3.4	1
5	103	3.5	1
5	106	3.6	1
5	109	3.7	1
5	112	3.8	1
5	115	3.9	1
5	118	4	1
5	121	4.1	1
5	124	4.2	1
5	127	4.3	1
5	130	4.4	1
5	133	4.5	1
5	136	4.6	1
5	139	4.7	1
5	142	4.8	1
5	145	4.9	1
5	148	5	1
5	151	5.1	1
5	155	5.2	1
5	160	5.3	1
5	165	5.4	1
5	170	5.5	1
5	175	5.6	1
5	180	5.7	1
5	185	5.8	1
5	190	5.9	1
5	195	6	1
5	200	6.1	1
5	205	6.2	1
5	210	6.3	1
5	215	6.4	1
5	220	6.5	1
5	225	6.6	1
5	230	6.7	1
5	235	6.8	1
5	240	6.9	1
5	245	7	1
5	250	7.1	1
5	255	7.2	1
5	260	7.3	1
5	265	7.4	1
5	270	7.5	1
5	275	7.6	1
5	280	7.7	1
5	285	7.8	1
5	290	7.9	1
5	295	8	1
5	300	8.1	1
5	305	8.2	1
5	310	8.3	1
5	315	8.4	1
5	320	8.5	1
5	325	8.6	1
5	330	8.7	1
5	335	8.8	1
5	340	8.9	1
5	345	9	1
5	350	9.1	1
5	355	9.2	1
5	360	9.3	1
5	365	9.4	1
5	370	9.5	1
5	375	9.6	1
5	380	9.7	1
5	385	9.8	1
5	390	9.9	1
5	395	10	1
5	400	10.1	1
5	406	10.2	1
5	413	10.3	1
5	420	10.4	1
5	427	10.5	1
5	434	10.6	1
5	441	10.7	1
5	448	10.8	1
5	455	10.9	1
5	462	11	1
5	469	11.1	1
5	476	11.2	1
5	483	11.3	1
5	490	11.4	1
5	497	11.5	1
5	504	11.6	1
5	511	11.7	1
5	518	11.8	1
5	525	11.9	1
5	532	12	1
5	539	12.1	1
5	546	12.2	1
5	553	12.3	1
5	560	12.4	1
5	567	12.5	1
5	574	12.6	1
5	581	12.7	1
5	588	12.8	1
5	595	12.9	1
5	602	13	1
5	609	13.1	1
5	616	13.2	1
5	623	13.3	1
5	630	13.4	1
5	637	13.5	1
5	644	13.6	1
5	651	13.7	1
5	658	13.8	1
5	665	13.9	1
5	672	14	1
5	679	14.1	3.3750779948605e-13
5	686	14.2	0
5	693	14.3	0
5	700	14.4	0
5	707	14.5	0
5	714	14.6	0
5	721	14.7	0
5	728	14.8	0
5	735	14.9	0
5	742	15	0
5	749	15.1	0
5	757	15.2	0
5	766	15.3	0
5	775	15.4	0
5	784	15.5	0
5	793	15.6	0
5	802	15.7	0
5	811	15.8	0
4	4	0.2	0.1
4	7	0.3	0.2
4	10	0.4	0.3
4	13	0.5	0.4
4	16	0.6	0.5
4	19	0.7	0.6
4	22	0.8	0.7
4	25	0.9	0.8
4	28	1	0.9
4	31	1.1	1
4	34	1.2	1.1
4	37	1.3	1.2
4	40	1.4	1.3
4	43	1.5	1.4
4	46	1.6	1.5
4	49	1.7	1.6
4	52	1.8	1.7
4	55	1.9	1.8
4	58	2	1.9
4	61	2.1	2
4	64	2.2	2.1
4	67	2.3	2.2
4	70	2.4	2.3
4	73	2.5	2.4
4	76	2.6	2.5
4	79	2.7	2.6
4	82	2.8	2.7
4	85	2.9	2.8
4	88	3	2.9
4	91	3.1	3
4	94	3.2	3.1
4	97	3.3	3.2
4	100	3.4	3.3
4	103	3.5	3.4
4	106	3.6	3.5
4	109	3.7	3.6
4	112	3.8	3.7
4	115	3.9	3.8
4	118	4	3.9
4	121	4.1	4
4	124	4.2	4.1
4	127	4.3	4.2
4	130	4.4	4.3
4	133	4.5	4.4
4	136	4.6	4.5
4	139	4.7	4.6
4	142	4.8	4.7
4	145	4.9	4.8
4	148	5	4.9
4	151	5.1	5
4	155	5.2	5.1
4	160	5.3	5.2
4	165	5.4	5.3
4	170	5.5	5.4
4	175	5.6	5.5
4	180	5.7	5.6
4	185	5.8	5.7
4	190	5.9	5.8
4	195	6	5.9
4	200	6.1	6
4	205	6.2	6.1
4	210	6.3	6.2
4	215	6.4	6.3
4	220	6.5	6.4
4	225	6.6	6.5
4	230	6.7	6.6
4	235	6.8	6.7
4	240	6.9	6.8
4	245	7	6.9
4	250	7.1	7
4	255	7.2	7.1
4	260	7.3	7.2
4	265	7.4	7.3
4	270	7.5	7.4
4	275	7.6	7.5
4	280	7.7	7.6
4	285	7.8	7.7
4	290	7.9	7.8
4	295	8	7.9
4	300	8.1	8
4	305	8.2	8.1
4	310	8.3	8.2
4	315	8.4	8.3
4	320	8.5	8.4
4	325	8.6	8.5
4	330	8.7	8.6
4	335	8.8	8.7
4	340	8.9	8.8
4	345	9	8.9
4	350	9.1	9
4	355	9.2	9.1
4	360	9.3	9.2
4	365	9.4	9.3
4	370	9.5	9.4
4	375	9.6	9.5
4	380	9.7	9.6
4	385	9.8	9.7
4	390	9.9	9.8
4	395	10	9.9
4	400	10.1	10
4	406	10.2	10.1
4	413	10.3	10.2
4	420	10.4	10.3
4	427	10.5	10.4
4	434	10.6	10.5
4	441	10.7	10.6
4	448	10.8	10.7
4	455	10.9	10.8
4	462	11	10.9
4	469	11.1	11
4	476	11.2	11.1
4	483	11.3	11.2
4	490	11.4	11.3
4	497	11.5	11.4
4	504	11.6	11.5
4	511	11.7	11.6
4	518	11.8	11.7
4	525	11.9	11.8
4	532	12	11.9
4	539	12.1	12
4	546	12.2	12.1
4	553	12.3	12.2
4	560	12.4	12.3
4	567	12.5	12.4
4	574	12.6	12.5
4	581	12.7	12.6
4	588	12.8	12.7
4	595	12.9	12.8
4	602	13	12.9
4	609	13.1	13
4	616	13.2	13.1
4	623	13.3	13.2
4	630	13.4	13.3
4	637	13.5	13.4
4	644	13.6	13.5
4	651	13.7	13.6
4	658	13.8	13.7
4	665	13.9	13.8
4	672	14	13.9
4	679	14.1	13.9
4	686	14.2	13.9
4	693	14.3	13.9
4	700	14.4	13.9
4	707	14.5	13.9
4	714	14.6	13.9
4	721	14.7	13.9
4	728	14.8	13.9
4	735	14.9	13.9
4	742	15	13.9
4	749	15.1	13.9
4	757	15.2	13.9
4	766	15.3	13.9
4	775	15.4	13.9
4	784	15.5	13.9
4	793	15.6	13.9
4	802	15.7	13.9
4	811	15.8	13.9
3	2	0.1	26.65
3	4	0.2	26.65
3	7	0.3	26.65
3	10	0.4	26.65
3	13	0.5	26.65
3	16	0.6	26.65
3	19	0.7	26.65
3	22	0.8	26.65
3	25	0.9	26.65
3	28	1	26.65
3	31	1.1	26.65
3	34	1.2	26.65
3	37	1.3	26.65
3	40	1.4	26.65
3	43	1.5	26.65
3	46	1.6	26.65
3	49	1.7	26.65
3	52	1.8	26.65
3	55	1.9	26.65
3	58	2	26.65
3	61	2.1	26.65
3	64	2.2	26.65
3	67	2.3	26.65
3	70	2.4	26.65
3	73	2.5	26.65
3	76	2.6	26.65
3	79	2.7	26.65
3	82	2.8	26.65
3	85	2.9	26.65
3	88	3	26.65
3	91	3.1	26.65
3	94	3.2	26.65
3	97	3.3	26.65
3	100	3.4	26.65
3	103	3.5	26.65
3	106	3.6	26.65
3	109	3.7	26.65
3	112	3.8	26.65
3	115	3.9	26.65
3	118	4	26.65
3	121	4.1	26.65
3	124	4.2	26.65
3	127	4.3	26.65
3	130	4.4	26.65
3	133	4.5	26.65
3	136	4.6	26.65
3	139	4.7	26.65
3	142	4.8	26.65
3	145	4.9	26.65
3	148	5	26.65
3	151	5.1	26.65
3	155	5.2	26.65
3	160	5.3	26.65
3	165	5.4	26.65
3	170	5.5	26.65
3	175	5.6	26.65
3	180	5.7	26.65
3	185	5.8	26.65
3	190	5.9	26.65
3	195	6	26.65
3	200	6.1	26.65
3	205	6.2	26.65
3	210	6.3	26.65
3	215	6.4	26.65
3	220	6.5	26.65
3	225	6.6	26.65
3	230	6.7	26.65
3	235	6.8	26.65
3	240	6.9	26.65
3	245	7	26.65
3	250	7.1	26.65
3	255	7.2	26.65
3	260	7.3	26.65
3	265	7.4	26.65
3	270	7.5	26.65
3	275	7.6	26.65
3	280	7.7	26.65
3	285	7.8	26.65
3	290	7.9	26.65
3	295	8	26.65
3	300	8.1	26.65
3	305	8.2	26.65
3	310	8.3	26.65
3	315	8.4	26.65
3	320	8.5	26.65
3	325	8.6	26.65
3	330	8.7	26.65
3	335	8.8	26.65
3	340	8.9	26.65
3	345	9	26.65
3	350	9.1	26.65
3	355	9.2	26.65
3	360	9.3	26.65
3	365	9.4	26.65
3	370	9.5	26.65
3	375	9.6	26.65
3	380	9.7	26.65
3	385	9.8	26.65
3	390	9.9	26.65
3	395	10	26.65
3	400	10.1	26.65
3	406	10.2	26.65
3	413	10.3	26.65
3	420	10.4	26.65
3	427	10.5	26.65
3	434	10.6	26.65
3	441	10.7	26.65
3	448	10.8	26.65
3	455	10.9	26.65
3	462	11	26.65
3	469	11.1	26.65
3	476	11.2	26.65
3	483	11.3	26.65
3	490	11.4	26.65
3	497	11.5	26.65
3	504	11.6	26.65
3	511	11.7	26.65
3	518	11.8	26.65
3	525	11.9	26.65
3	532	12	26.65
3	539	12.1	26.65
3	546	12.2	26.65
3	553	12.3	26.65
3	560	12.4	26.65
3	567	12.5	26.65
3	574	12.6	26.65
3	581	12.7	26.65
3	588	12.8	26.65
3	595	12.9	26.65
3	602	13	26.65
3	609	13.1	26.65
3	616	13.2	26.65
3	623	13.3	26.65
3	630	13.4	26.65
3	637	13.5	26.65
3	644	13.6	26.65
3	651	13.7	26.65
3	658	13.8	26.65
3	665	13.9	26.65
3	672	14	26.65
3	679	14.1	26.65
3	686	14.2	26.65
3	693	14.3	26.65
3	700	14.4	26.65
3	707	14.5	26.65
3	714	14.6	26.65
3	721	14.7	26.65
3	728	14.8	26.65
3	735	14.9	26.65
3	742	15	26.65
3	749	15.1	26.65
3	757	15.2	26.65
3	766	15.3	26.65
3	775	15.4	26.65
3	784	15.5	26.65
3	793	15.6	26.65
3	802	15.7	26.65
3	811	15.8	26.65
2	2	0.1	27.1
2	4	0.2	27.1
2	7	0.3	27.11
2	10	0.4	27.13
2	13	0.5	27.16
2	16	0.6	27.2
2	19	0.7	27.25
2	22	0.8	27.31
2	25	0.9	27.38
2	28	1	27.46
2	31	1.1	27.55
2	34	1.2	27.65
2	37	1.3	27.76
2	40	1.4	27.88
2	43	1.5	28.01
2	46	1.6	28.15
2	49	1.7	28.3
2	52	1.8	28.46
2	55	1.9	28.63
2	58	2	28.81
2	61	2.1	29
2	64	2.2	29.2
2	67	2.3	29.41
2	70	2.4	29.63
2	73	2.5	29.86
2	76	2.6	30.1
2	79	2.7	30.35
2	82	2.8	30.61
2	85	2.9	30.88
2	88	3	31.16
2	91	3.1	31.45
2	94	3.2	31.75
2	97	3.3	32.06
2	100	3.4	32.38
2	103	3.5	32.71
2	106	3.6	33.05
2	109	3.7	33.4
2	112	3.8	33.76
2	115	3.9	34.13
2	118	4	34.51
2	121	4.1	34.9
2	124	4.2	35.3
2	127	4.3	35.71
2	130	4.4	36.13
2	133	4.5	36.56
2	136	4.6	37
2	139	4.7	37.45
2	142	4.8	37.91
2	145	4.9	38.38
2	148	5	38.86
2	151	5.1	39.35
2	155	5.2	39.85
2	160	5.3	40.36
2	165	5.4	40.88
2	170	5.5	41.41
2	175	5.6	41.95
2	180	5.7	42.5
2	185	5.8	43.06
2	190	5.9	43.63
2	195	6	44.21
2	200	6.1	44.8
2	205	6.2	45.4
2	210	6.3	46.01
2	215	6.4	46.63
2	220	6.5	47.26
2	225	6.6	47.9
2	230	6.7	48.55
2	235	6.8	49.21
2	240	6.9	49.88
2	245	7	50.56
2	250	7.1	51.25
2	255	7.2	51.95
2	260	7.3	52.66
2	265	7.4	53.38
2	270	7.5	54.11
2	275	7.6	54.85
2	280	7.7	55.6
2	285	7.8	56.36
2	290	7.9	57.13
2	295	8	57.91
2	300	8.1	58.7
2	305	8.2	59.5
2	310	8.3	60.31
2	315	8.4	61.13
2	320	8.5	61.96
2	325	8.6	62.8
2	330	8.7	63.65
2	335	8.8	64.51
2	340	8.9	65.38
2	345	9	66.26
2	350	9.1	67.15
2	355	9.2	68.05
2	360	9.3	68.96
2	365	9.4	69.88
2	370	9.5	70.81
2	375	9.6	71.75
2	380	9.7	72.7
2	385	9.8	73.66
2	390	9.9	74.63
2	395	10	75.61
2	400	10.1	76.6
2	406	10.2	77.6
2	413	10.3	78.61
2	420	10.4	79.63
2	427	10.5	80.66
2	434	10.6	81.7
2	441	10.7	82.75
2	448	10.8	83.81
2	455	10.9	84.88
2	462	11	85.96
2	469	11.1	87.05
2	476	11.2	88.15
2	483	11.3	89.26
2	490	11.4	90.38
2	497	11.5	91.51
2	504	11.6	92.65
2	511	11.7	93.8
2	518	11.8	94.96
2	525	11.9	96.13
2	532	12	97.31
2	539	12.1	98.5
2	546	12.2	99.7
2	553	12.3	100.91
2	560	12.4	102.13
2	567	12.5	103.36
2	574	12.6	104.6
2	581	12.7	105.85
2	588	12.8	107.11
2	595	12.9	108.38
2	602	13	109.66
2	609	13.1	110.95
2	616	13.2	112.25
2	623	13.3	113.56
2	630	13.4	114.88
2	637	13.5	116.21
2	644	13.6	117.55
2	651	13.7	118.9
2	658	13.8	120.26
2	665	13.9	121.63
2	672	14	123.01
2	679	14.1	124.4
2	686	14.2	125.79
2	693	14.3	127.18
2	700	14.4	128.57
2	707	14.5	129.96
2	714	14.6	131.35
2	721	14.7	132.74
2	728	14.8	134.13
2	735	14.9	135.52
2	742	15	136.91
2	749	15.1	138.3
2	757	15.2	139.69
2	766	15.3	141.08
2	775	15.4	142.47
2	784	15.5	143.86
2	793	15.6	145.25
2	802	15.7	146.64
2	811	15.8	148.03
13	160	5.3	1.167848739031
13	165	5.4	1.1967744942298
13	170	5.5	1.2257019122483
13	175	5.6	1.25463154736
13	180	5.7	1.2835639538381
13	185	5.8	1.3124996859558
13	190	5.9	1.3414392979866
13	195	6	1.3703833442035
13	200	6.1	1.39933237888
13	205	6.2	1.4282869562893
13	210	6.3	1.4572476307046
13	215	6.4	1.4862149563994
13	220	6.5	1.5151894876467
13	225	6.6	1.54417177872
13	230	6.7	1.5731623838925
13	235	6.8	1.6021618574374
13	240	6.9	1.6311707536282
13	245	7	1.6601896267379
13	250	7.1	1.68921903104
13	255	7.2	1.7182595208077
13	260	7.3	1.7473116503142
13	265	7.4	1.776375973833
13	270	7.5	1.8054530456371
13	275	7.6	1.83454342
13	280	7.7	1.8636476511949
13	285	7.8	1.892766293495
13	290	7.9	1.9218999011738
13	295	8	1.9510490285043
13	300	8.1	1.98021422976
13	305	8.2	2.0093960592141
13	310	8.3	2.0385950711398
13	315	8.4	2.0678118198106
13	320	8.5	2.0970468594995
13	325	8.6	2.12630074448
13	330	8.7	2.1555740290253
13	335	8.8	2.1848672674086
13	340	8.9	2.2141810139034
13	345	9	2.2435158227827
13	350	9.1	2.27287224832
13	355	9.2	2.3022508447885
13	360	9.3	2.3316521664614
13	365	9.4	2.3610767676122
13	370	9.5	2.3905252025139
13	375	9.6	2.41999802544
13	380	9.7	2.4494957906637
13	385	9.8	2.4790190524582
13	390	9.9	2.508568365097
13	395	10	2.5381442828531
13	400	10.1	2.56774736
13	406	10.2	2.5973781508109
13	413	10.3	2.627037209559
13	420	10.4	2.6567250905178
13	427	10.5	2.6864423479603
13	434	10.6	2.71618953616
13	441	10.7	2.7459672093901
13	448	10.8	2.7757759219238
13	455	10.9	2.8056162280346
13	462	11	2.8354886819955
13	469	11.1	2.86539383808
13	476	11.2	2.8953322505613
13	483	11.3	2.9253044737126
13	490	11.4	2.9553110618074
13	497	11.5	2.9853525691187
13	504	11.6	3.01542954992
13	511	11.7	3.0455425584845
13	518	11.8	3.0756921490854
13	525	11.9	3.1058788759962
13	532	12	3.1361032934899
13	539	12.1	3.16636595584
13	546	12.2	3.1966674173197
13	553	12.3	3.2270082322022
13	560	12.4	3.257388954761
13	567	12.5	3.2878101392691
13	574	12.6	3.31827234
13	581	12.7	3.3487761112269
13	588	12.8	3.379322007223
13	595	12.9	3.4099105822617
13	602	13	3.4405423906163
13	609	13.1	3.47121798656
13	616	13.2	3.5019379243661
13	623	13.3	3.5327027583078
13	630	13.4	3.5635130426585
13	637	13.5	3.5943693316915
13	644	13.6	3.62527217968
13	651	13.7	3.6562221408973
13	658	13.8	3.6872197696166
13	665	13.9	3.7182656201113
13	672	14	3.7493602466547
13	679	14.1	3.78050420352
13	686	14.2	3.8116980449805
13	693	14.3	3.8429423253094
13	700	14.4	3.8742375987801
13	707	14.5	3.9055844196659
13	714	14.6	3.93698334224
13	721	14.7	3.9684349207757
13	728	14.8	3.9999397095462
13	735	14.9	4.0314982628249
13	742	15	4.0631111348851
13	749	15.1	4.09477888
13	757	15.2	4.1265020524429
13	766	15.3	4.158281206487
13	775	15.4	4.1901168964057
13	784	15.5	4.2220096764723
13	793	15.6	4.25396010096
13	802	15.7	4.2859687241421
13	811	15.8	4.3180361002918
12	160	5.3	1
12	165	5.4	1
12	170	5.5	1
12	175	5.6	1
12	180	5.7	1
12	185	5.8	1
12	190	5.9	1
12	195	6	1
12	200	6.1	1
12	205	6.2	1
12	210	6.3	1
12	215	6.4	1
12	220	6.5	1
12	225	6.6	1
12	230	6.7	1
12	235	6.8	1
12	240	6.9	1
12	245	7	1
12	250	7.1	1
12	255	7.2	1
12	260	7.3	1
12	265	7.4	1
12	270	7.5	1
12	275	7.6	1
12	280	7.7	1
12	285	7.8	1
12	290	7.9	1
12	295	8	1
12	300	8.1	1
12	305	8.2	1
12	310	8.3	1
12	315	8.4	1
12	320	8.5	1
12	325	8.6	1
12	330	8.7	1
12	335	8.8	1
12	340	8.9	1
12	345	9	1
12	350	9.1	1
12	355	9.2	1
12	360	9.3	1
12	365	9.4	1
12	370	9.5	1
12	375	9.6	1
12	380	9.7	1
12	385	9.8	1
12	390	9.9	1
12	395	10	1
12	400	10.1	1
12	406	10.2	1
12	413	10.3	1
12	420	10.4	1
12	427	10.5	1
12	434	10.6	1
12	441	10.7	1
12	448	10.8	1
12	455	10.9	1
12	462	11	1
12	469	11.1	1
12	476	11.2	1
12	483	11.3	1
12	490	11.4	1
12	497	11.5	1
12	504	11.6	1
12	511	11.7	1
12	518	11.8	1
12	525	11.9	1
12	532	12	1
12	539	12.1	1
12	546	12.2	1
12	553	12.3	1
12	560	12.4	1
12	567	12.5	1
12	574	12.6	1
12	581	12.7	1
12	588	12.8	1
12	595	12.9	1
12	602	13	1
12	609	13.1	1
12	616	13.2	1
12	623	13.3	1
12	630	13.4	1
12	637	13.5	1
12	644	13.6	1
12	651	13.7	1
12	658	13.8	1
12	665	13.9	1
12	672	14	1
12	679	14.1	1
12	686	14.2	1
12	693	14.3	1
12	700	14.4	1
12	707	14.5	1
12	714	14.6	1
12	721	14.7	1
12	728	14.8	1
12	735	14.9	1
12	742	15	1
12	749	15.1	1
12	757	15.2	1
12	766	15.3	1
12	775	15.4	1
12	784	15.5	1
12	793	15.6	1
12	802	15.7	1
12	811	15.8	1
11	155	5.2	0.1
11	160	5.3	0.2
11	165	5.4	0.3
11	170	5.5	0.4
11	175	5.6	0.5
11	180	5.7	0.6
11	185	5.8	0.7
11	190	5.9	0.8
11	195	6	0.9
11	200	6.1	1
11	205	6.2	1.1
11	210	6.3	1.2
11	215	6.4	1.3
11	220	6.5	1.4
11	225	6.6	1.5
11	230	6.7	1.6
11	235	6.8	1.7
11	240	6.9	1.8
11	245	7	1.9
11	250	7.1	2
11	255	7.2	2.1
11	260	7.3	2.2
11	265	7.4	2.3
11	270	7.5	2.4
11	275	7.6	2.5
11	280	7.7	2.6
11	285	7.8	2.7
11	290	7.9	2.8
11	295	8	2.9
11	300	8.1	3
11	305	8.2	3.1
11	310	8.3	3.2
11	315	8.4	3.3
11	320	8.5	3.4
11	325	8.6	3.5
11	330	8.7	3.6
11	335	8.8	3.7
11	340	8.9	3.8
11	345	9	3.9
11	350	9.1	4
11	355	9.2	4.1
11	360	9.3	4.2
11	365	9.4	4.3
11	370	9.5	4.4
11	375	9.6	4.5
11	380	9.7	4.6
11	385	9.8	4.7
11	390	9.9	4.8
11	395	10	4.9
11	400	10.1	5
11	406	10.2	5.1
11	413	10.3	5.2
11	420	10.4	5.3
11	427	10.5	5.4
11	434	10.6	5.5
11	441	10.7	5.6
11	448	10.8	5.7
11	455	10.9	5.8
11	462	11	5.9
11	469	11.1	6
11	476	11.2	6.1
11	483	11.3	6.2
11	490	11.4	6.3
11	497	11.5	6.4
11	504	11.6	6.5
11	511	11.7	6.6
11	518	11.8	6.7
11	525	11.9	6.8
11	532	12	6.9
11	539	12.1	7
11	546	12.2	7.1
11	553	12.3	7.2
11	560	12.4	7.3
11	567	12.5	7.4
11	574	12.6	7.5
11	581	12.7	7.6
11	588	12.8	7.7
11	595	12.9	7.8
11	602	13	7.9
11	609	13.1	8
11	616	13.2	8.1
11	623	13.3	8.2
11	630	13.4	8.3
11	637	13.5	8.4
11	644	13.6	8.5
11	651	13.7	8.6
11	658	13.8	8.7
11	665	13.9	8.8
11	672	14	8.9
11	679	14.1	9
11	686	14.2	9.1
11	693	14.3	9.2
11	700	14.4	9.3
11	707	14.5	9.4
11	714	14.6	9.5
11	721	14.7	9.6
11	728	14.8	9.7
11	735	14.9	9.8
11	742	15	9.9
11	749	15.1	10
11	757	15.2	10.1
11	766	15.3	10.2
11	775	15.4	10.3
11	784	15.5	10.4
11	793	15.6	10.5
11	802	15.7	10.6
11	811	15.8	10.7
10	151	5.1	26.65
10	155	5.2	26.65
10	160	5.3	26.65
10	165	5.4	26.65
10	170	5.5	26.65
10	175	5.6	26.65
10	180	5.7	26.65
10	185	5.8	26.65
10	190	5.9	26.65
10	195	6	26.65
10	200	6.1	26.65
10	205	6.2	26.65
10	210	6.3	26.65
10	215	6.4	26.65
10	220	6.5	26.65
10	225	6.6	26.65
10	230	6.7	26.65
10	235	6.8	26.65
10	240	6.9	26.65
10	245	7	26.65
10	250	7.1	26.65
10	255	7.2	26.65
10	260	7.3	26.65
10	265	7.4	26.65
10	270	7.5	26.65
10	275	7.6	26.65
10	280	7.7	26.65
10	285	7.8	26.65
10	290	7.9	26.65
10	295	8	26.65
10	300	8.1	26.65
10	305	8.2	26.65
10	310	8.3	26.65
10	315	8.4	26.65
10	320	8.5	26.65
10	325	8.6	26.65
10	330	8.7	26.65
10	335	8.8	26.65
10	340	8.9	26.65
10	345	9	26.65
10	350	9.1	26.65
10	355	9.2	26.65
10	360	9.3	26.65
10	365	9.4	26.65
10	370	9.5	26.65
10	375	9.6	26.65
10	380	9.7	26.65
10	385	9.8	26.65
10	390	9.9	26.65
10	395	10	26.65
10	400	10.1	26.65
10	406	10.2	26.65
10	413	10.3	26.65
10	420	10.4	26.65
10	427	10.5	26.65
10	434	10.6	26.65
10	441	10.7	26.65
10	448	10.8	26.65
10	455	10.9	26.65
10	462	11	26.65
10	469	11.1	26.65
10	476	11.2	26.65
10	483	11.3	26.65
10	490	11.4	26.65
10	497	11.5	26.65
10	504	11.6	26.65
10	511	11.7	26.65
10	518	11.8	26.65
10	525	11.9	26.65
10	532	12	26.65
10	539	12.1	26.65
10	546	12.2	26.65
10	553	12.3	26.65
10	560	12.4	26.65
10	567	12.5	26.65
10	574	12.6	26.65
10	581	12.7	26.65
10	588	12.8	26.65
10	595	12.9	26.65
10	602	13	26.65
10	609	13.1	26.65
10	616	13.2	26.65
10	623	13.3	26.65
10	630	13.4	26.65
10	637	13.5	26.65
10	644	13.6	26.65
10	651	13.7	26.65
10	658	13.8	26.65
10	665	13.9	26.65
10	672	14	26.65
10	679	14.1	26.65
10	686	14.2	26.65
10	693	14.3	26.65
10	700	14.4	26.65
10	707	14.5	26.65
10	714	14.6	26.65
10	721	14.7	26.65
10	728	14.8	26.65
10	735	14.9	26.65
10	742	15	26.65
10	749	15.1	26.65
10	757	15.2	26.65
10	766	15.3	26.65
10	775	15.4	26.65
10	784	15.5	26.65
10	793	15.6	26.65
10	802	15.7	26.65
10	811	15.8	26.65
9	151	5.1	27.1
9	155	5.2	27.1
9	160	5.3	27.11
9	165	5.4	27.13
9	170	5.5	27.16
9	175	5.6	27.2
9	180	5.7	27.25
9	185	5.8	27.31
9	190	5.9	27.38
9	195	6	27.46
9	200	6.1	27.55
9	205	6.2	27.65
9	210	6.3	27.76
9	215	6.4	27.88
9	220	6.5	28.01
9	225	6.6	28.15
9	230	6.7	28.3
9	235	6.8	28.46
9	240	6.9	28.63
9	245	7	28.81
9	250	7.1	29
9	255	7.2	29.2
9	260	7.3	29.41
9	265	7.4	29.63
9	270	7.5	29.86
9	275	7.6	30.1
9	280	7.7	30.35
9	285	7.8	30.61
9	290	7.9	30.88
9	295	8	31.16
9	300	8.1	31.45
9	305	8.2	31.75
9	310	8.3	32.06
9	315	8.4	32.38
9	320	8.5	32.71
9	325	8.6	33.05
9	330	8.7	33.4
9	335	8.8	33.76
9	340	8.9	34.13
9	345	9	34.51
9	350	9.1	34.9
9	355	9.2	35.3
9	360	9.3	35.71
9	365	9.4	36.13
9	370	9.5	36.56
9	375	9.6	37
9	380	9.7	37.45
9	385	9.8	37.91
9	390	9.9	38.38
9	395	10	38.86
9	400	10.1	39.35
9	406	10.2	39.85
9	413	10.3	40.36
9	420	10.4	40.88
9	427	10.5	41.41
9	434	10.6	41.95
9	441	10.7	42.5
9	448	10.8	43.06
9	455	10.9	43.63
9	462	11	44.21
9	469	11.1	44.8
9	476	11.2	45.4
9	483	11.3	46.01
9	490	11.4	46.63
9	497	11.5	47.26
9	504	11.6	47.9
9	511	11.7	48.55
9	518	11.8	49.21
9	525	11.9	49.88
9	532	12	50.56
9	539	12.1	51.25
9	546	12.2	51.95
9	553	12.3	52.66
9	560	12.4	53.38
9	567	12.5	54.11
9	574	12.6	54.85
9	581	12.7	55.6
9	588	12.8	56.36
9	595	12.9	57.13
9	602	13	57.91
9	609	13.1	58.7
9	616	13.2	59.5
9	623	13.3	60.31
9	630	13.4	61.13
9	637	13.5	61.96
9	644	13.6	62.8
9	651	13.7	63.65
9	658	13.8	64.51
9	665	13.9	65.38
9	672	14	66.26
9	679	14.1	67.15
9	686	14.2	68.05
9	693	14.3	68.96
9	700	14.4	69.88
9	707	14.5	70.81
9	714	14.6	71.75
9	721	14.7	72.7
9	728	14.8	73.66
9	735	14.9	74.63
9	742	15	75.61
9	749	15.1	76.6
9	757	15.2	77.6
9	766	15.3	78.61
9	775	15.4	79.63
9	784	15.5	80.66
9	793	15.6	81.7
9	802	15.7	82.75
9	811	15.8	83.81
20	413	10.3	1.167848739031
20	420	10.4	1.1967744942298
20	427	10.5	1.2257019122483
20	434	10.6	1.25463154736
20	441	10.7	1.2835639538381
20	448	10.8	1.3124996859558
20	455	10.9	1.3414392979866
20	462	11	1.3703833442035
20	469	11.1	1.39933237888
20	476	11.2	1.4282869562893
20	483	11.3	1.4572476307046
20	490	11.4	1.4862149563994
20	497	11.5	1.5151894876467
20	504	11.6	1.54417177872
20	511	11.7	1.5731623838925
20	518	11.8	1.6021618574374
20	525	11.9	1.6311707536282
20	532	12	1.6601896267379
20	539	12.1	1.68921903104
20	546	12.2	1.7182595208077
20	553	12.3	1.7473116503142
20	560	12.4	1.776375973833
20	567	12.5	1.8054530456371
20	574	12.6	1.83454342
20	581	12.7	1.8636476511949
20	588	12.8	1.892766293495
20	595	12.9	1.9218999011738
20	602	13	1.9510490285043
20	609	13.1	1.98021422976
20	616	13.2	2.0093960592141
20	623	13.3	2.0385950711398
20	630	13.4	2.0678118198106
20	637	13.5	2.0970468594995
20	644	13.6	2.12630074448
20	651	13.7	2.1555740290253
20	658	13.8	2.1848672674086
20	665	13.9	2.2141810139034
20	672	14	2.2435158227827
20	679	14.1	2.27287224832
20	686	14.2	2.3022508447885
20	693	14.3	2.3316521664614
20	700	14.4	2.3610767676122
20	707	14.5	2.3905252025139
20	714	14.6	2.41999802544
20	721	14.7	2.4494957906637
20	728	14.8	2.4790190524582
20	735	14.9	2.508568365097
20	742	15	2.5381442828531
20	749	15.1	2.56774736
20	757	15.2	2.5973781508109
20	766	15.3	2.627037209559
20	775	15.4	2.6567250905178
20	784	15.5	2.6864423479603
20	793	15.6	2.71618953616
20	802	15.7	2.7459672093901
20	811	15.8	2.7757759219238
19	413	10.3	1
19	420	10.4	1
19	427	10.5	1
19	434	10.6	1
19	441	10.7	1
19	448	10.8	1
19	455	10.9	1
19	462	11	1
19	469	11.1	1
19	476	11.2	1
19	483	11.3	1
19	490	11.4	1
19	497	11.5	1
19	504	11.6	1
19	511	11.7	1
19	518	11.8	1
19	525	11.9	1
19	532	12	1
19	539	12.1	1
19	546	12.2	1
19	553	12.3	1
19	560	12.4	1
19	567	12.5	1
19	574	12.6	1
19	581	12.7	1
19	588	12.8	1
19	595	12.9	1
19	602	13	1
19	609	13.1	1
19	616	13.2	1
19	623	13.3	1
19	630	13.4	1
19	637	13.5	1
19	644	13.6	1
19	651	13.7	1
19	658	13.8	1
19	665	13.9	1
19	672	14	1
19	679	14.1	1
19	686	14.2	1
19	693	14.3	1
19	700	14.4	1
19	707	14.5	1
19	714	14.6	1
19	721	14.7	1
19	728	14.8	1
19	735	14.9	1
19	742	15	1
19	749	15.1	1
19	757	15.2	1
19	766	15.3	1
19	775	15.4	1
19	784	15.5	1
19	793	15.6	1
19	802	15.7	1
19	811	15.8	1
18	406	10.2	0.1
18	413	10.3	0.2
18	420	10.4	0.3
18	427	10.5	0.4
18	434	10.6	0.5
18	441	10.7	0.6
18	448	10.8	0.7
18	455	10.9	0.8
18	462	11	0.9
18	469	11.1	1
18	476	11.2	1.1
18	483	11.3	1.2
18	490	11.4	1.3
18	497	11.5	1.4
18	504	11.6	1.5
18	511	11.7	1.6
18	518	11.8	1.7
18	525	11.9	1.8
18	532	12	1.9
18	539	12.1	2
18	546	12.2	2.1
18	553	12.3	2.2
18	560	12.4	2.3
18	567	12.5	2.4
18	574	12.6	2.5
18	581	12.7	2.6
18	588	12.8	2.7
18	595	12.9	2.8
18	602	13	2.9
18	609	13.1	3
18	616	13.2	3.1
18	623	13.3	3.2
18	630	13.4	3.3
18	637	13.5	3.4
18	644	13.6	3.5
18	651	13.7	3.6
18	658	13.8	3.7
18	665	13.9	3.8
18	672	14	3.9
18	679	14.1	4
18	686	14.2	4.1
18	693	14.3	4.2
18	700	14.4	4.3
18	707	14.5	4.4
18	714	14.6	4.5
18	721	14.7	4.6
18	728	14.8	4.7
18	735	14.9	4.8
18	742	15	4.9
18	749	15.1	5
18	757	15.2	5.1
18	766	15.3	5.2
18	775	15.4	5.3
18	784	15.5	5.4
18	793	15.6	5.5
18	802	15.7	5.6
18	811	15.8	5.7
17	400	10.1	26.65
17	406	10.2	26.65
17	413	10.3	26.65
17	420	10.4	26.65
17	427	10.5	26.65
17	434	10.6	26.65
17	441	10.7	26.65
17	448	10.8	26.65
17	455	10.9	26.65
17	462	11	26.65
17	469	11.1	26.65
17	476	11.2	26.65
17	483	11.3	26.65
17	490	11.4	26.65
17	497	11.5	26.65
17	504	11.6	26.65
17	511	11.7	26.65
17	518	11.8	26.65
17	525	11.9	26.65
17	532	12	26.65
17	539	12.1	26.65
17	546	12.2	26.65
17	553	12.3	26.65
17	560	12.4	26.65
17	567	12.5	26.65
17	574	12.6	26.65
17	581	12.7	26.65
17	588	12.8	26.65
17	595	12.9	26.65
17	602	13	26.65
17	609	13.1	26.65
17	616	13.2	26.65
17	623	13.3	26.65
17	630	13.4	26.65
17	637	13.5	26.65
17	644	13.6	26.65
17	651	13.7	26.65
17	658	13.8	26.65
17	665	13.9	26.65
17	672	14	26.65
17	679	14.1	26.65
17	686	14.2	26.65
17	693	14.3	26.65
17	700	14.4	26.65
17	707	14.5	26.65
17	714	14.6	26.65
17	721	14.7	26.65
17	728	14.8	26.65
17	735	14.9	26.65
17	742	15	26.65
17	749	15.1	26.65
17	757	15.2	26.65
17	766	15.3	26.65
17	775	15.4	26.65
17	784	15.5	26.65
17	793	15.6	26.65
17	802	15.7	26.65
17	811	15.8	26.65
16	400	10.1	27.1
16	406	10.2	27.1
16	413	10.3	27.11
16	420	10.4	27.13
16	427	10.5	27.16
16	434	10.6	27.2
16	441	10.7	27.25
16	448	10.8	27.31
16	455	10.9	27.38
16	462	11	27.46
16	469	11.1	27.55
16	476	11.2	27.65
16	483	11.3	27.76
16	490	11.4	27.88
16	497	11.5	28.01
16	504	11.6	28.15
16	511	11.7	28.3
16	518	11.8	28.46
16	525	11.9	28.63
16	532	12	28.81
16	539	12.1	29
16	546	12.2	29.2
16	553	12.3	29.41
16	560	12.4	29.63
16	567	12.5	29.86
16	574	12.6	30.1
16	581	12.7	30.35
16	588	12.8	30.61
16	595	12.9	30.88
16	602	13	31.16
16	609	13.1	31.45
16	616	13.2	31.75
16	623	13.3	32.06
16	630	13.4	32.38
16	637	13.5	32.71
16	644	13.6	33.05
16	651	13.7	33.4
16	658	13.8	33.76
16	665	13.9	34.13
16	672	14	34.51
16	679	14.1	34.9
16	686	14.2	35.3
16	693	14.3	35.71
16	700	14.4	36.13
16	707	14.5	36.56
16	714	14.6	37
16	721	14.7	37.45
16	728	14.8	37.91
16	735	14.9	38.38
16	742	15	38.86
16	749	15.1	39.35
16	757	15.2	39.85
16	766	15.3	40.36
16	775	15.4	40.88
16	784	15.5	41.41
16	793	15.6	41.95
16	802	15.7	42.5
16	811	15.8	43.06
27	766	15.3	1.167848739031
27	775	15.4	1.1967744942298
27	784	15.5	1.2257019122483
27	793	15.6	1.25463154736
27	802	15.7	1.2835639538381
27	811	15.8	1.3124996859558
26	766	15.3	1
26	775	15.4	1
26	784	15.5	1
26	793	15.6	1
26	802	15.7	1
26	811	15.8	1
25	757	15.2	0.1
25	766	15.3	0.2
25	775	15.4	0.3
25	784	15.5	0.4
25	793	15.6	0.5
25	802	15.7	0.6
25	811	15.8	0.7
24	749	15.1	26.65
24	757	15.2	26.65
24	766	15.3	26.65
24	775	15.4	26.65
24	784	15.5	26.65
24	793	15.6	26.65