file 7732270 1474830126                                         
version 2
run nodebug-0-20160925-14:59:13-40561
attr configname nodebug
attr datetime 20160925-14:59:13
attr experiment nodebug
attr inifile omnetpp.ini
attr iterationvars ""
attr iterationvars2 $repetition=0
attr measurement ""
attr network RSUExampleScenario
attr processid 40561
attr repetition 0
attr replication #0
attr resultdir results
attr runnumber 0
attr seedset 0

vector 4  RSUExampleScenario.node[0].veinsmobility  posx  ETV
vector 5  RSUExampleScenario.node[0].veinsmobility  posy  ETV
vector 6  RSUExampleScenario.node[0].veinsmobility  speed  ETV
vector 7  RSUExampleScenario.node[0].veinsmobility  acceleration  ETV
vector 8  RSUExampleScenario.node[0].veinsmobility  co2emission  ETV
vector 11  RSUExampleScenario.node[1].veinsmobility  posx  ETV
vector 12  RSUExampleScenario.node[1].veinsmobility  posy  ETV
vector 13  RSUExampleScenario.node[1].veinsmobility  speed  ETV
vector 14  RSUExampleScenario.node[1].veinsmobility  acceleration  ETV
vector 15  RSUExampleScenario.node[1].veinsmobility  co2emission  ETV
vector 18  RSUExampleScenario.node[2].veinsmobility  posx  ETV
vector 19  RSUExampleScenario.node[2].veinsmobility  posy  ETV
vector 20  RSUExampleScenario.node[2].veinsmobility  speed  ETV
vector 21  RSUExampleScenario.node[2].veinsmobility  acceleration  ETV
vector 22  RSUExampleScenario.node[2].veinsmobility  co2emission  ETV
vector 25  RSUExampleScenario.node[3].veinsmobility  posx  ETV
vector 26  RSUExampleScenario.node[3].veinsmobility  posy  ETV
vector 27  RSUExampleScenario.node[3].veinsmobility  speed  ETV
vector 28  RSUExampleScenario.node[3].veinsmobility  acceleration  ETV
vector 29  RSUExampleScenario.node[3].veinsmobility  co2emission  ETV
vector 32  RSUExampleScenario.node[4].veinsmobility  posx  ETV
vector 33  RSUExampleScenario.node[4].veinsmobility  posy  ETV
vector 34  RSUExampleScenario.node[4].veinsmobility  speed  ETV
vector 35  RSUExampleScenario.node[4].veinsmobility  acceleration  ETV
vector 36  RSUExampleScenario.node[4].veinsmobility  co2emission  ETV
vector 39  RSUExampleScenario.node[5].veinsmobility  posx  ETV
vector 40  RSUExampleScenario.node[5].veinsmobility  posy  ETV
vector 41  RSUExampleScenario.node[5].veinsmobility  speed  ETV
vector 42  RSUExampleScenario.node[5].veinsmobility  acceleration  ETV
vector 43  RSUExampleScenario.node[5].veinsmobility  co2emission  ETV
vector 46  RSUExampleScenario.node[6].veinsmobility  posx  ETV
vector 47  RSUExampleScenario.node[6].veinsmobility  posy  ETV
vector 48  RSUExampleScenario.node[6].veinsmobility  speed  ETV
vector 49  RSUExampleScenario.node[6].veinsmobility  acceleration  ETV
vector 50  RSUExampleScenario.node[6].veinsmobility  co2emission  ETV
vector 53  RSUExampleScenario.node[7].veinsmobility  posx  ETV
vector 54  RSUExampleScenario.node[7].veinsmobility  posy  ETV
vector 55  RSUExampleScenario.node[7].veinsmobility  speed  ETV
vector 56  RSUExampleScenario.node[7].veinsmobility  acceleration  ETV
vector 57  RSUExampleScenario.node[7].veinsmobility  co2emission  ETV
vector 60  RSUExampleScenario.node[8].veinsmobility  posx  ETV
vector 61  RSUExampleScenario.node[8].veinsmobility  posy  ETV
vector 62  RSUExampleScenario.node[8].veinsmobility  speed  ETV
vector 63  RSUExampleScenario.node[8].veinsmobility  acceleration  ETV
vector 64  RSUExampleScenario.node[8].veinsmobility  co2emission  ETV
vector 67  RSUExampleScenario.node[9].veinsmobility  posx  ETV
vector 68  RSUExampleScenario.node[9].veinsmobility  posy  ETV
vector 69  RSUExampleScenario.node[9].veinsmobility  speed  ETV
vector 70  RSUExampleScenario.node[9].veinsmobility  acceleration  ETV
vector 71  RSUExampleScenario.node[9].veinsmobility  co2emission  ETV
vector 74  RSUExampleScenario.node[10].veinsmobility  posx  ETV
vector 75  RSUExampleScenario.node[10].veinsmobility  posy  ETV
vector 76  RSUExampleScenario.node[10].veinsmobility  speed  ETV
vector 77  RSUExampleScenario.node[10].veinsmobility  acceleration  ETV
vector 78  RSUExampleScenario.node[10].veinsmobility  co2emission  ETV
vector 81  RSUExampleScenario.node[11].veinsmobility  posx  ETV
vector 82  RSUExampleScenario.node[11].veinsmobility  posy  ETV
vector 83  RSUExampleScenario.node[11].veinsmobility  speed  ETV
vector 84  RSUExampleScenario.node[11].veinsmobility  acceleration  ETV
vector 85  RSUExampleScenario.node[11].veinsmobility  co2emission  ETV
vector 88  RSUExampleScenario.node[12].veinsmobility  posx  ETV
vector 89  RSUExampleScenario.node[12].veinsmobility  posy  ETV
vector 90  RSUExampleScenario.node[12].veinsmobility  speed  ETV
vector 91  RSUExampleScenario.node[12].veinsmobility  acceleration  ETV
vector 92  RSUExampleScenario.node[12].veinsmobility  co2emission  ETV
vector 95  RSUExampleScenario.node[13].veinsmobility  posx  ETV
vector 96  RSUExampleScenario.node[13].veinsmobility  posy  ETV
vector 97  RSUExampleScenario.node[13].veinsmobility  speed  ETV
vector 98  RSUExampleScenario.node[13].veinsmobility  acceleration  ETV
vector 99  RSUExampleScenario.node[13].veinsmobility  co2emission  ETV
vector 102  RSUExampleScenario.node[14].veinsmobility  posx  ETV
vector 103  RSUExampleScenario.node[14].veinsmobility  posy  ETV
vector 104  RSUExampleScenario.node[14].veinsmobility  speed  ETV
vector 105  RSUExampleScenario.node[14].veinsmobility  acceleration  ETV
vector 106  RSUExampleScenario.node[14].veinsmobility  co2emission  ETV
vector 109  RSUExampleScenario.node[15].veinsmobility  posx  ETV
vector 110  RSUExampleScenario.node[15].veinsmobility  posy  ETV
vector 111  RSUExampleScenario.node[15].veinsmobility  speed  ETV
vector 112  RSUExampleScenario.node[15].veinsmobility  acceleration  ETV
vector 113  RSUExampleScenario.node[15].veinsmobility  co2emission  ETV
vector 116  RSUExampleScenario.node[16].veinsmobility  posx  ETV
vector 117  RSUExampleScenario.node[16].veinsmobility  posy  ETV
vector 118  RSUExampleScenario.node[16].veinsmobility  speed  ETV
vector 119  RSUExampleScenario.node[16].veinsmobility  acceleration  ETV
vector 120  RSUExampleScenario.node[16].veinsmobility  co2emission  ETV
vector 123  RSUExampleScenario.node[17].veinsmobility  posx  ETV
vector 124  RSUExampleScenario.node[17].veinsmobility  posy  ETV
vector 125  RSUExampleScenario.node[17].veinsmobility  speed  ETV
vector 126  RSUExampleScenario.node[17].veinsmobility  acceleration  ETV
vector 127  RSUExampleScenario.node[17].veinsmobility  co2emission  ETV
vector 130  RSUExampleScenario.node[18].veinsmobility  posx  ETV
vector 131  RSUExampleScenario.node[18].veinsmobility  posy  ETV
vector 132  RSUExampleScenario.node[18].veinsmobility  speed  ETV
vector 133  RSUExampleScenario.node[18].veinsmobility  acceleration  ETV
vector 134  RSUExampleScenario.node[18].veinsmobility  co2emission  ETV
vector 137  RSUExampleScenario.node[19].veinsmobility  posx  ETV
vector 138  RSUExampleScenario.node[19].veinsmobility  posy  ETV
vector 139  RSUExampleScenario.node[19].veinsmobility  speed  ETV
vector 140  RSUExampleScenario.node[19].veinsmobility  acceleration  ETV
vector 141  RSUExampleScenario.node[19].veinsmobility  co2emission  ETV
vector 144  RSUExampleScenario.node[20].veinsmobility  posx  ETV
vector 145  RSUExampleScenario.node[20].veinsmobility  posy  ETV
vector 146  RSUExampleScenario.node[20].veinsmobility  speed  ETV
vector 147  RSUExampleScenario.node[20].veinsmobility  acceleration  ETV
vector 148  RSUExampleScenario.node[20].veinsmobility  co2emission  ETV
vector 151  RSUExampleScenario.node[21].veinsmobility  posx  ETV
vector 152  RSUExampleScenario.node[21].veinsmobility  posy  ETV
vector 153  RSUExampleScenario.node[21].veinsmobility  speed  ETV
vector 154  RSUExampleScenario.node[21].veinsmobility  acceleration  ETV
vector 155  RSUExampleScenario.node[21].veinsmobility  co2emission  ETV
vector 158  RSUExampleScenario.node[22].veinsmobility  posx  ETV
vector 159  RSUExampleScenario.node[22].veinsmobility  posy  ETV
vector 160  RSUExampleScenario.node[22].veinsmobility  speed  ETV
vector 161  RSUExampleScenario.node[22].veinsmobility  acceleration  ETV
vector 162  RSUExampleScenario.node[22].veinsmobility  co2emission  ETV
vector 165  RSUExampleScenario.node[23].veinsmobility  posx  ETV
vector 166  RSUExampleScenario.node[23].veinsmobility  posy  ETV
vector 167  RSUExampleScenario.node[23].veinsmobility  speed  ETV
vector 168  RSUExampleScenario.node[23].veinsmobility  acceleration  ETV
vector 169  RSUExampleScenario.node[23].veinsmobility  co2emission  ETV
vector 172  RSUExampleScenario.node[24].veinsmobility  posx  ETV
vector 173  RSUExampleScenario.node[24].veinsmobility  posy  ETV
vector 174  RSUExampleScenario.node[24].veinsmobility  speed  ETV
vector 175  RSUExampleScenario.node[24].veinsmobility  acceleration  ETV
vector 176  RSUExampleScenario.node[24].veinsmobility  co2emission  ETV
vector 179  RSUExampleScenario.node[25].veinsmobility  posx  ETV
vector 180  RSUExampleScenario.node[25].veinsmobility  posy  ETV
vector 181  RSUExampleScenario.node[25].veinsmobility  speed  ETV
vector 182  RSUExampleScenario.node[25].veinsmobility  acceleration  ETV
vector 183  RSUExampleScenario.node[25].veinsmobility  co2emission  ETV
vector 186  RSUExampleScenario.node[26].veinsmobility  posx  ETV
vector 187  RSUExampleScenario.node[26].veinsmobility  posy  ETV
vector 188  RSUExampleScenario.node[26].veinsmobility  speed  ETV
vector 189  RSUExampleScenario.node[26].veinsmobility  acceleration  ETV
vector 190  RSUExampleScenario.node[26].veinsmobility  co2emission  ETV
vector 193  RSUExampleScenario.node[27].veinsmobility  posx  ETV
vector 194  RSUExampleScenario.node[27].veinsmobility  posy  ETV
vector 195  RSUExampleScenario.node[27].veinsmobility  speed  ETV
vector 196  RSUExampleScenario.node[27].veinsmobility  acceleration  ETV
vector 197  RSUExampleScenario.node[27].veinsmobility  co2emission  ETV
vector 200  RSUExampleScenario.node[28].veinsmobility  posx  ETV
vector 201  RSUExampleScenario.node[28].veinsmobility  posy  ETV
vector 202  RSUExampleScenario.node[28].veinsmobility  speed  ETV
vector 203  RSUExampleScenario.node[28].veinsmobility  acceleration  ETV
vector 204  RSUExampleScenario.node[28].veinsmobility  co2emission  ETV
vector 207  RSUExampleScenario.node[29].veinsmobility  posx  ETV
vector 208  RSUExampleScenario.node[29].veinsmobility  posy  ETV
vector 209  RSUExampleScenario.node[29].veinsmobility  speed  ETV
vector 210  RSUExampleScenario.node[29].veinsmobility  acceleration  ETV
vector 211  RSUExampleScenario.node[29].veinsmobility  co2emission  ETV
vector 214  RSUExampleScenario.node[30].veinsmobility  posx  ETV
vector 215  RSUExampleScenario.node[30].veinsmobility  posy  ETV
vector 216  RSUExampleScenario.node[30].veinsmobility  speed  ETV
vector 217  RSUExampleScenario.node[30].veinsmobility  acceleration  ETV
vector 218  RSUExampleScenario.node[30].veinsmobility  co2emission  ETV
vector 221  RSUExampleScenario.node[31].veinsmobility  posx  ETV
vector 222  RSUExampleScenario.node[31].veinsmobility  posy  ETV
vector 223  RSUExampleScenario.node[31].veinsmobility  speed  ETV
vector 224  RSUExampleScenario.node[31].veinsmobility  acceleration  ETV
vector 225  RSUExampleScenario.node[31].veinsmobility  co2emission  ETV
vector 228  RSUExampleScenario.node[32].veinsmobility  posx  ETV
vector 229  RSUExampleScenario.node[32].veinsmobility  posy  ETV
vector 230  RSUExampleScenario.node[32].veinsmobility  speed  ETV
vector 231  RSUExampleScenario.node[32].veinsmobility  acceleration  ETV
vector 232  RSUExampleScenario.node[32].veinsmobility  co2emission  ETV
vector 235  RSUExampleScenario.node[33].veinsmobility  posx  ETV
vector 236  RSUExampleScenario.node[33].veinsmobility  posy  ETV
vector 237  RSUExampleScenario.node[33].veinsmobility  speed  ETV
vector 238  RSUExampleScenario.node[33].veinsmobility  acceleration  ETV
vector 239  RSUExampleScenario.node[33].veinsmobility  co2emission  ETV
vector 242  RSUExampleScenario.node[34].veinsmobility  posx  ETV
vector 243  RSUExampleScenario.node[34].veinsmobility  posy  ETV
vector 244  RSUExampleScenario.node[34].veinsmobility  speed  ETV
vector 245  RSUExampleScenario.node[34].veinsmobility  acceleration  ETV
vector 246  RSUExampleScenario.node[34].veinsmobility  co2emission  ETV
vector 249  RSUExampleScenario.node[35].veinsmobility  posx  ETV
vector 250  RSUExampleScenario.node[35].veinsmobility  posy  ETV
vector 251  RSUExampleScenario.node[35].veinsmobility  speed  ETV
vector 252  RSUExampleScenario.node[35].veinsmobility  acceleration  ETV
vector 253  RSUExampleScenario.node[35].veinsmobility  co2emission  ETV
vector 256  RSUExampleScenario.node[36].veinsmobility  posx  ETV
vector 257  RSUExampleScenario.node[36].veinsmobility  posy  ETV
vector 258  RSUExampleScenario.node[36].veinsmobility  speed  ETV
vector 259  RSUExampleScenario.node[36].veinsmobility  acceleration  ETV
vector 260  RSUExampleScenario.node[36].veinsmobility  co2emission  ETV
vector 263  RSUExampleScenario.node[37].veinsmobility  posx  ETV
vector 264  RSUExampleScenario.node[37].veinsmobility  posy  ETV
vector 265  RSUExampleScenario.node[37].veinsmobility  speed  ETV
vector 266  RSUExampleScenario.node[37].veinsmobility  acceleration  ETV
vector 267  RSUExampleScenario.node[37].veinsmobility  co2emission  ETV
vector 270  RSUExampleScenario.node[38].veinsmobility  posx  ETV
vector 271  RSUExampleScenario.node[38].veinsmobility  posy  ETV
vector 272  RSUExampleScenario.node[38].veinsmobility  speed  ETV
vector 273  RSUExampleScenario.node[38].veinsmobility  acceleration  ETV
vector 274  RSUExampleScenario.node[38].veinsmobility  co2emission  ETV
vector 277  RSUExampleScenario.node[39].veinsmobility  posx  ETV
vector 278  RSUExampleScenario.node[39].veinsmobility  posy  ETV
vector 279  RSUExampleScenario.node[39].veinsmobility  speed  ETV
vector 280  RSUExampleScenario.node[39].veinsmobility  acceleration  ETV
vector 281  RSUExampleScenario.node[39].veinsmobility  co2emission  ETV
vector 284  RSUExampleScenario.node[40].veinsmobility  posx  ETV
vector 285  RSUExampleScenario.node[40].veinsmobility  posy  ETV
vector 286  RSUExampleScenario.node[40].veinsmobility  speed  ETV
vector 287  RSUExampleScenario.node[40].veinsmobility  acceleration  ETV
vector 288  RSUExampleScenario.node[40].veinsmobility  co2emission  ETV
vector 291  RSUExampleScenario.node[41].veinsmobility  posx  ETV
vector 292  RSUExampleScenario.node[41].veinsmobility  posy  ETV
vector 293  RSUExampleScenario.node[41].veinsmobility  speed  ETV
vector 294  RSUExampleScenario.node[41].veinsmobility  acceleration  ETV
vector 295  RSUExampleScenario.node[41].veinsmobility  co2emission  ETV
vector 298  RSUExampleScenario.node[42].veinsmobility  posx  ETV
vector 299  RSUExampleScenario.node[42].veinsmobility  posy  ETV
vector 300  RSUExampleScenario.node[42].veinsmobility  speed  ETV
vector 301  RSUExampleScenario.node[42].veinsmobility  acceleration  ETV
vector 302  RSUExampleScenario.node[42].veinsmobility  co2emission  ETV
vector 305  RSUExampleScenario.node[43].veinsmobility  posx  ETV
vector 306  RSUExampleScenario.node[43].veinsmobility  posy  ETV
vector 307  RSUExampleScenario.node[43].veinsmobility  speed  ETV
vector 308  RSUExampleScenario.node[43].veinsmobility  acceleration  ETV
vector 309  RSUExampleScenario.node[43].veinsmobility  co2emission  ETV
vector 312  RSUExampleScenario.node[44].veinsmobility  posx  ETV
vector 313  RSUExampleScenario.node[44].veinsmobility  posy  ETV
vector 314  RSUExampleScenario.node[44].veinsmobility  speed  ETV
vector 315  RSUExampleScenario.node[44].veinsmobility  acceleration  ETV
vector 316  RSUExampleScenario.node[44].veinsmobility  co2emission  ETV
vector 319  RSUExampleScenario.node[45].veinsmobility  posx  ETV
vector 320  RSUExampleScenario.node[45].veinsmobility  posy  ETV
vector 321  RSUExampleScenario.node[45].veinsmobility  speed  ETV
vector 322  RSUExampleScenario.node[45].veinsmobility  acceleration  ETV
vector 323  RSUExampleScenario.node[45].veinsmobility  co2emission  ETV
vector 326  RSUExampleScenario.node[46].veinsmobility  posx  ETV
vector 327  RSUExampleScenario.node[46].veinsmobility  posy  ETV
vector 328  RSUExampleScenario.node[46].veinsmobility  speed  ETV
vector 329  RSUExampleScenario.node[46].veinsmobility  acceleration  ETV
vector 330  RSUExampleScenario.node[46].veinsmobility  co2emission  ETV
vector 333  RSUExampleScenario.node[47].veinsmobility  posx  ETV
vector 334  RSUExampleScenario.node[47].veinsmobility  posy  ETV
vector 335  RSUExampleScenario.node[47].veinsmobility  speed  ETV
vector 336  RSUExampleScenario.node[47].veinsmobility  acceleration  ETV
vector 337  RSUExampleScenario.node[47].veinsmobility  co2emission  ETV
vector 340  RSUExampleScenario.node[48].veinsmobility  posx  ETV
vector 341  RSUExampleScenario.node[48].veinsmobility  posy  ETV
vector 342  RSUExampleScenario.node[48].veinsmobility  speed  ETV
vector 343  RSUExampleScenario.node[48].veinsmobility  acceleration  ETV
vector 344  RSUExampleScenario.node[48].veinsmobility  co2emission  ETV
vector 347  RSUExampleScenario.node[49].veinsmobility  posx  ETV
vector 348  RSUExampleScenario.node[49].veinsmobility  posy  ETV
vector 349  RSUExampleScenario.node[49].veinsmobility  speed  ETV
vector 350  RSUExampleScenario.node[49].veinsmobility  acceleration  ETV
vector 351  RSUExampleScenario.node[49].veinsmobility  co2emission  ETV
vector 354  RSUExampleScenario.node[50].veinsmobility  posx  ETV
vector 355  RSUExampleScenario.node[50].veinsmobility  posy  ETV
vector 356  RSUExampleScenario.node[50].veinsmobility  speed  ETV
vector 357  RSUExampleScenario.node[50].veinsmobility  acceleration  ETV
vector 358  RSUExampleScenario.node[50].veinsmobility  co2emission  ETV
vector 361  RSUExampleScenario.node[51].veinsmobility  posx  ETV
vector 362  RSUExampleScenario.node[51].veinsmobility  posy  ETV
vector 363  RSUExampleScenario.node[51].veinsmobility  speed  ETV
vector 364  RSUExampleScenario.node[51].veinsmobility  acceleration  ETV
vector 365  RSUExampleScenario.node[51].veinsmobility  co2emission  ETV
vector 368  RSUExampleScenario.node[52].veinsmobility  posx  ETV
vector 369  RSUExampleScenario.node[52].veinsmobility  posy  ETV
vector 370  RSUExampleScenario.node[52].veinsmobility  speed  ETV
vector 371  RSUExampleScenario.node[52].veinsmobility  acceleration  ETV
vector 372  RSUExampleScenario.node[52].veinsmobility  co2emission  ETV
vector 375  RSUExampleScenario.node[53].veinsmobility  posx  ETV
vector 376  RSUExampleScenario.node[53].veinsmobility  posy  ETV
vector 377  RSUExampleScenario.node[53].veinsmobility  speed  ETV
vector 378  RSUExampleScenario.node[53].veinsmobility  acceleration  ETV
vector 379  RSUExampleScenario.node[53].veinsmobility  co2emission  ETV
vector 382  RSUExampleScenario.node[54].veinsmobility  posx  ETV
vector 383  RSUExampleScenario.node[54].veinsmobility  posy  ETV
vector 384  RSUExampleScenario.node[54].veinsmobility  speed  ETV
vector 385  RSUExampleScenario.node[54].veinsmobility  acceleration  ETV
vector 386  RSUExampleScenario.node[54].veinsmobility  co2emission  ETV
vector 389  RSUExampleScenario.node[55].veinsmobility  posx  ETV
vector 390  RSUExampleScenario.node[55].veinsmobility  posy  ETV
vector 391  RSUExampleScenario.node[55].veinsmobility  speed  ETV
vector 392  RSUExampleScenario.node[55].veinsmobility  acceleration  ETV
vector 393  RSUExampleScenario.node[55].veinsmobility  co2emission  ETV
vector 396  RSUExampleScenario.node[56].veinsmobility  posx  ETV
vector 397  RSUExampleScenario.node[56].veinsmobility  posy  ETV
vector 398  RSUExampleScenario.node[56].veinsmobility  speed  ETV
vector 399  RSUExampleScenario.node[56].veinsmobility  acceleration  ETV
vector 400  RSUExampleScenario.node[56].veinsmobility  co2emission  ETV
vector 403  RSUExampleScenario.node[57].veinsmobility  posx  ETV
vector 404  RSUExampleScenario.node[57].veinsmobility  posy  ETV
vector 405  RSUExampleScenario.node[57].veinsmobility  speed  ETV
vector 406  RSUExampleScenario.node[57].veinsmobility  acceleration  ETV
vector 407  RSUExampleScenario.node[57].veinsmobility  co2emission  ETV
vector 410  RSUExampleScenario.node[58].veinsmobility  posx  ETV
vector 411  RSUExampleScenario.node[58].veinsmobility  posy  ETV
vector 412  RSUExampleScenario.node[58].veinsmobility  speed  ETV
vector 413  RSUExampleScenario.node[58].veinsmobility  acceleration  ETV
vector 414  RSUExampleScenario.node[58].veinsmobility  co2emission  ETV
8	20370 41208 4 5956 0.3 176.6 1764 0.973 9.8270200902335 4207.2141536299 15328.858442557
7	61578 46177 4 5956 0.3 176.6 1764 -4.5 2.6 137.46339154591 1989.1076735675
6	107755 44611 3 5956 0.2 176.6 1765 0 13.999771951779 18954.257860325 254877.70112617
5	152366 48620 2 5956 0.1 176.6 1766 1416.3898814721 2120.966550488 3294735.6344583 6227274872.7391
4	200986 48333 2 5956 0.1 176.6 1766 1460.3869841258 2450.6439768443 3732088.1215924 8035605041.7386
15	249319 44639 34 5956 3.3 176.6 1734 0.973 10.074962646494 4142.6006091982 15139.015611855
14	293958 52454 34 5956 3.3 176.6 1734 -4.4939712290513 2.6 137.26553453828 1800.6249393165
13	346412 50436 33 5956 3.2 176.6 1735 1.0506948295518e-11 13.999975727196 18727.008289655 250327.58882994
12	396848 49599 32 5956 3.1 176.6 1736 1429.495771735 2120.9425332109 3242723.4996794 6134026377.3119
11	446447 49576 32 5956 3.1 176.6 1736 1478.9842624388 2450.6232249783 3681057.395339 7947485829.404
78	496023 35429 304 5956 30.3 176.6 1464 0.973 10.010733029611 3488.0462266022 13428.444477081
77	531452 39276 304 5956 30.3 176.6 1464 -4.5 2.6 137.44597256714 2012.2531242035
76	570728 38103 303 5956 30.2 176.6 1465 0 13.999881321082 13795.368869637 178596.7858264
75	608831 42301 302 5956 30.1 176.6 1466 1578.0861504339 2120.932292439 2859974.2501878 5623749560.7544
74	651132 42306 302 5956 30.1 176.6 1466 1837.2121531252 2450.613821491 3289044.5866493 7421847830.6516
85	693438 37188 334 5956 33.3 176.6 1434 0.973 9.9228630812386 3440.0017834677 13237.850655969
84	730626 43848 334 5956 33.3 176.6 1434 -3.9638326302501 2.6 136.81973252035 1899.0821077547
83	774474 42416 333 5956 33.2 176.6 1435 3.6580247513939e-13 13.999900360159 13469.933235152 173129.61971662
82	816890 41454 332 5956 33.1 176.6 1436 1578.0861504339 2120.9294731431 2805433.1043063 5524221913.7735
81	858344 41440 332 5956 33.1 176.6 1436 1859.9394097356 2450.6126674002 3232334.7753416 7314580501.5893
92	899784 36472 364 5956 36.3 176.6 1404 0.973 10.005799809175 3352.1854446288 12722.009157882
91	936256 42856 364 5956 36.3 176.6 1404 -4.0011578390017 2.6 136.990639526 1826.7696601275
90	979112 41465 363 5956 36.2 176.6 1405 1.5128344950714e-11 13.999854134803 13170.410934915 168204.31100136
89	1020577 40608 362 5956 36.1 176.6 1406 1578.0861504339 2120.9622567957 2749061.7523498 5418014615.489
88	1061185 40606 362 5956 36.1 176.6 1406 1880.8617364134 2450.6279588129 3174704.4779167 7203856690.1975
99	1101791 35373 394 5956 39.3 176.6 1374 0.973 10.35420869057 3150.6690542543 10904.21723737
98	1137164 41534 394 5956 39.3 176.6 1374 -4.5 2.6 36.12306754061 1511.3795200808
97	1178698 39962 393 5956 39.2 176.6 1375 0.00089430037265757 13.999990581057 14328.125859138 179433.04964606
96	1218660 39761 392 5956 39.1 176.6 1376 1356.6082406854 2084.0439629825 2292691.9427447 3886642595.1841
95	1258421 39758 392 5956 39.1 176.6 1376 2271.5690091294 2453.9216610795 3295823.4251779 7899394361.3904
106	1298179 35771 424 5956 42.3 176.6 1344 0.973 10.095578770494 3079.0260099393 10744.865385655
105	1333950 41981 424 5956 42.3 176.6 1344 -4.5 2.6 32.571901166609 1444.0585736837
104	1375931 40412 423 5956 42.2 176.6 1345 0.0073655530909893 13.999966582269 14244.252449546 178721.40176289
103	1416343 40304 422 5956 42.1 176.6 1346 1362.958208994 2083.8518873053 2252594.2771175 3833181892.1558
102	1456647 40283 422 5956 42.1 176.6 1346 2276.9932621047 2453.9223150538 3228074.5549818 7746430073.302
113	1496930 35017 454 5956 45.3 176.6 1314 0.973 9.8626647149632 3045.6219182803 10659.956406375
112	1531947 41131 454 5956 45.3 176.6 1314 -4.5 2.6 29.445025856967 1400.1312754186
111	1573078 39510 453 5956 45.2 176.6 1315 0.033190818850264 13.999813819695 14164.062043976 178200.42236117
110	1612588 39454 452 5956 45.1 176.6 1316 1369.0320986174 2084.042756388 2211775.0928722 3777546524.7597
109	1652042 39423 452 5956 45.1 176.6 1316 2282.181683882 2453.9288619995 3159949.4898857 7591724881.876
120	1691465 34101 484 5956 48.3 176.6 1284 0.973 10.327430733623 2987.4234606963 10606.973604115
119	1725566 40149 484 5956 48.3 176.6 1284 -4.5 2.6 23.594974683021 1411.795038117
118	1765715 38587 483 5956 48.2 176.6 1285 0.10954275101438 13.999936781079 14087.978211626 177732.73847103
117	1804302 38561 482 5956 48.1 176.6 1286 1374.7727992414 2084.0380066857 2171066.0910597 3722378682.9106
116	1842863 38582 482 5956 48.1 176.6 1286 2287.085489842 2453.9214053976 3091704.7530878 7436489373.7528
127	1881445 33411 514 5956 51.3 176.6 1254 0.973 9.9164297862581 2956.0122063356 10519.289259035
126	1914856 39311 514 5956 51.3 176.6 1254 -4.5 2.6 19.376598842699 1391.6865891971
125	1954167 37713 513 5956 51.2 176.6 1255 0.25575374198146 13.99997836269 14016.289557918 177242.85974221
124	1991880 37719 512 5956 51.1 176.6 1256 1380.1917492943 2084.0159108127 2129922.8232976 3665900928.7615
123	2029599 37707 512 5956 51.1 176.6 1256 2291.7144508881 2453.9361258764 3023263.7209167 7280353182.3504
134	2067306 32612 544 5956 54.3 176.6 1224 0.973 9.9643977871565 2925.0710850907 10444.926422605
133	2099918 38290 544 5956 54.3 176.6 1224 -4.5 2.6 15.942776848379 1383.1842287246
132	2138208 36850 543 5956 54.2 176.6 1225 0.25452556009637 13.999774735647 13948.708423076 176667.00890527
131	2175058 36855 542 5956 54.1 176.6 1226 1385.3041684618 2083.9683696609 2088926.0482176 3609984618.8274
130	2211913 36854 542 5956 54.1 176.6 1226 2296.0815679391 2453.9034606592 2954721.51405 7123768426.7322
141	2248767 32027 574 5956 57.3 176.6 1194 0.973 10.230544781862 3090.207423888 12153.701415074
140	2280794 37226 574 5956 57.3 176.6 1194 -4.2529282995504 2.6 136.74042481995 1826.6157970609
139	2318020 36089 573 5956 57.2 176.6 1195 0.00531866959441 13.999855555976 12847.368913893 163203.62886268
138	2354109 35980 572 5956 57.1 176.6 1196 1578.0861504339 2120.9563985132 2312679.2634648 4509888273.4528
137	2390089 35997 572 5956 57.1 176.6 1196 1903.4236809133 2450.656897247 2720436.3262943 6219371338.1084
22	2426086 43849 64 5956 6.3 176.6 1704 0.973 10.024477358084 4120.6704568601 15164.255255148
21	2469935 51527 64 5956 6.3 176.6 1704 -3.9251372694849 2.6 136.62117118688 1787.6862824501
20	2521462 49552 63 5956 6.2 176.6 1705 4.491262827637e-10 13.999978797489 18462.536905774 245784.14653465
19	2571014 48808 62 5956 6.1 176.6 1706 1444.7463372694 2120.9352109069 3192983.2105916 6049126447.4215
18	2619822 48835 62 5956 6.1 176.6 1706 1500.6248382387 2450.6133863578 3630556.221672 7860776263.5441
148	2668657 29154 604 5956 60.3 176.6 1164 0.973 10.356643985177 2456.0928078337 8526.9994055065
147	2697811 31724 604 5956 60.3 176.6 1164 -4.5 2.6 79.543481918222 1927.4940281061
146	2729535 31181 603 5956 60.2 176.6 1165 0 13.999407451251 8582.503446652 94324.39125458
145	2760716 34869 602 5956 60.1 176.6 1166 1282.2180016106 1751.3568145633 1726383.6281469 2581230565.9059
144	2795585 34864 602 5956 60.1 176.6 1166 2216.0706407824 2439.3847593253 2724965.6716924 6375108990.7805
155	2830449 30409 634 5956 63.3 176.6 1134 0.973 10.485556645996 2964.5595696028 11793.612926441
154	2860858 35403 634 5956 63.3 176.6 1134 -4.137234686811 2.6 136.34616040959 1796.0237609467
153	2896261 34241 633 5956 63.2 176.6 1135 0.24927679822454 13.999955688247 12552.472343858 158639.13506743
152	2930502 34275 632 5956 63.1 176.6 1136 1578.0861504339 2120.9564500283 2192357.8225554 4267508081.7096
151	2964777 34256 632 5956 63.1 176.6 1136 1924.0184589198 2450.6557052227 2594290.3745025 5952951844.5378
162	2999033 29735 664 5956 66.3 176.6 1104 0.973 10.272992759132 2315.3274492081 7938.1630113449
161	3028768 35167 664 5956 66.3 176.6 1104 -4.5 2.6 79.819444727814 1767.2579642882
160	3063935 34246 663 5956 66.2 176.6 1105 1.7342742213319e-11 13.997632609271 7422.1058650598 77636.886812439
159	3098181 33360 662 5956 66.1 176.6 1106 1297.6246015094 1701.1276139636 1637839.5929536 2447062025.6143
158	3131541 33433 662 5956 66.1 176.6 1106 2225.3244343608 2438.5132392716 2586821.6743452 6056287896.2371
169	3164974 28988 694 5956 69.3 176.6 1074 0.973 9.8170488924985 2256.7083544493 7679.0779553337
168	3193962 34185 694 5956 69.3 176.6 1074 -4.5 2.6 74.891687642586 1578.4095807384
167	3228147 33291 693 5956 69.2 176.6 1075 4.7103791742366e-10 13.941008577011 7247.1253491385 74731.146993803
166	3261438 32542 692 5956 69.1 176.6 1076 1312.4665926853 1701.1218600953 1594190.6117702 2381814377.8077
165	3293980 32561 692 5956 69.1 176.6 1076 2234.4825980196 2438.5157194796 2518596.7192673 5900773004.7959
176	3326541 28041 724 5956 72.3 176.6 1044 0.973 10.186781653094 2126.8622958932 7214.6559708809
175	3354582 33411 724 5956 72.3 176.6 1044 -3.8446434186306 2.6 33.07071530666 1327.8067853806
174	3387993 32356 723 5956 72.2 176.6 1045 6.812571453115e-09 13.995848522813 7126.9515808868 73502.469008095
173	3420349 31673 722 5956 72.1 176.6 1046 1321.5757934935 1701.1180256503 1550543.2976019 2316793559.6015
172	3452022 31677 722 5956 72.1 176.6 1046 2241.6436856228 2438.5155059372 2450092.1251296 5744001659.8091
183	3483699 27271 755 5956 75.3 176.6 1014 0.973 10.065649424633 2056.9429643826 6986.5723257901
182	3510970 32456 755 5956 75.3 176.6 1014 -4.5 2.6 38.785933101787 1216.0715754057
181	3543426 31449 754 5956 75.2 176.6 1015 6.4520189808311e-08 13.998623438133 7031.9285280162 73101.548897148
180	3574875 30821 753 5956 75.1 176.6 1016 1328.8440787233 1701.1248831861 1509129.1080438 2258898438.524
179	3605696 30819 753 5956 75.1 176.6 1016 2247.8523808265 2438.5124920865 2381920.1473333 5588839033.2311